16   
Scan Cycle 1/3600 ; Dihedral 6-5-7-15 = -180.00, Dihedral 7-8-9-16 = -180.00 ; Iteration 9 Energy -893.60270358
C        0.0036763548    1.3679607181    0.0781320325
N       -0.0038129589   -0.0779515173   -0.0202723982
C       -0.0568269751   -0.8308299959   -1.1408902964
C       -0.0396885707   -2.1351624106   -0.7114298309
C        0.0252640342   -2.0684875967    0.6981390960
N        0.0461988892   -0.7981314356    1.0985165947
C        0.0652865978   -3.1992486564    1.6170733065
N        0.1235626279   -3.0115573492    2.8759151762
O        0.1518580644   -4.2176704063    3.5432790181
Cl      -0.0869760774   -3.5549130664   -1.6781718623
H        0.9199941511    1.6951507037    0.5742564744
H       -0.0417972424    1.7900851475   -0.9268669811
H       -0.8617758321    1.6987702200    0.6563938593
H       -0.1014113017   -0.3928835168   -2.1293110179
H        0.0443739214   -4.2118825836    1.2060315929
H        0.1950691764   -3.9511025129    4.4711844440
16   
Scan Cycle 2/3600 ; Dihedral 6-5-7-15 = -180.00, Dihedral 7-8-9-16 = -173.90 ; Iteration 4 Energy -893.60258005
C        0.0042463027    1.3683163072    0.0774180810
N       -0.0030535755   -0.0776555525   -0.0205660860
C       -0.0627844034   -0.8308863318   -1.1406377860
C       -0.0422034846   -2.1348857896   -0.7104261682
C        0.0316136193   -2.0680271757    0.6986783558
N        0.0544402083   -0.7974302349    1.0981813817
C        0.0779683167   -3.1984777493    1.6177312880
N        0.1449153381   -3.0109536016    2.8761291087
O        0.1823118617   -4.2179976601    3.5418577772
Cl      -0.0948070329   -3.5550604652   -1.6762486852
H        0.9235275104    1.6961474634    0.5676579201
H       -0.0478357926    1.7902536634   -0.9273716273
H       -0.8577224997    1.6987935663    0.6610956565
H       -0.1138509189   -0.3934293314   -2.1289618648
H        0.0549485995   -4.2112955334    1.2070474967
H        0.1312826335   -3.9552710123    4.4704466376
16   
Scan Cycle 3/3600 ; Dihedral 6-5-7-15 = -180.00, Dihedral 7-8-9-16 = -167.80 ; Iteration 4 Energy -893.60220464
C        0.0048004368    1.3689956179    0.0762571304
N       -0.0023586828   -0.0770554050   -0.0207119341
C       -0.0684721856   -0.8314629681   -1.1396509896
C       -0.0446535500   -2.1352291912   -0.7088828795
C        0.0376142835   -2.0668263343    0.6996594200
N        0.0622519586   -0.7959448381    1.0981876459
C        0.0898513884   -3.1965072859    1.6193936590
N        0.1661706466   -3.0086593059    2.8771956189
O        0.2127831959   -4.2171989077    3.5416951284
Cl      -0.1023622778   -3.5562230677   -1.6732481528
H        0.9268530229    1.6976391025    0.5607170646
H       -0.0535506159    1.7902168938   -0.9284865140
H       -0.8537999226    1.6994585026    0.6648896341
H       -0.1257198857   -0.3947939645   -2.1279798051
H        0.0648613593   -4.2098737707    1.2097740263
H        0.0687308232   -3.9643995033    4.4632457423
16   
Scan Cycle 4/3600 ; Dihedral 6-5-7-15 = -180.00, Dihedral 7-8-9-16 = -161.69 ; Iteration 5 Energy -893.60157168
C        0.0053376993    1.3699888203    0.0742570570
N       -0.0017704595   -0.0761957485   -0.0208348656
C       -0.0737684393   -0.8320865429   -1.1384183235
C       -0.0470982697   -2.1353458278   -0.7062631150
C        0.0430208525   -2.0650229604    0.7016651604
N        0.0693231280   -0.7936736826    1.0985717986
C        0.1006050578   -3.1936434243    1.6224996520
N        0.1871552281   -3.0051139695    2.8795053154
O        0.2431992399   -4.2161447976    3.5427929997
Cl      -0.1096070232   -3.5575636200   -1.6685351609
H        0.9299075401    1.6996267482    0.5532124381
H       -0.0587062245    1.7899006396   -0.9306886016
H       -0.8501478937    1.7008773725    0.6671712863
H       -0.1366570453   -0.3966568726   -2.1269521324
H        0.0738039616   -4.2077583515    1.2143360630
H        0.0084063597   -3.9790509518    4.4498056240
16   
Scan Cycle 5/3600 ; Dihedral 6-5-7-15 = -180.00, Dihedral 7-8-9-16 = -155.59 ; Iteration 5 Energy -893.60069117
C        0.0058430814    1.3712231344    0.0715504602
N       -0.0011483785   -0.0751365988   -0.0209110410
C       -0.0791575944   -0.8328110214   -1.1368860351
C       -0.0494708449   -2.1353102918   -0.7026192259
C        0.0486028489   -2.0626781832    0.7046049049
N        0.0766260038   -0.7907052831    1.0992894009
C        0.1116243184   -3.1899126962    1.6269551128
N        0.2088136656   -3.0007476055    2.8830417237
O        0.2715433272   -4.2151040036    3.5450920183
Cl      -0.1168040438   -3.5591505276   -1.6621496589
H        0.9329472656    1.7021285303    0.5446957348
H       -0.0640430940    1.7892991956   -0.9337729434
H       -0.8464436656    1.7028072461    0.6686684151
H       -0.1478388995   -0.3990393621   -2.1257696064
H        0.0829421205   -4.2048684049    1.2204915758
H       -0.0510366976   -3.9978996583    4.4299337931
16   
Scan Cycle 6/3600 ; Dihedral 6-5-7-15 = -180.00, Dihedral 7-8-9-16 = -149.49 ; Iteration 5 Energy -893.59959713
C        0.0063917516    1.3726278195    0.0686178911
N       -0.0005457298   -0.0739232599   -0.0209572202
C       -0.0843776482   -0.8339920333   -1.1348980672
C       -0.0518295177   -2.1356959640   -0.6984249742
C        0.0539095999   -2.0599290084    0.7080098482
N        0.0836668036   -0.7872475745    1.1001983356
C        0.1221513507   -3.1854105516    1.6323243849
N        0.2298339585   -2.9949426653    2.8873199124
O        0.2989329735   -4.2131197174    3.5486482722
Cl      -0.1238619027   -3.5614938459   -1.6547273382
H        0.9359244254    1.7048284246    0.5360571309
H       -0.0691107404    1.7886827661   -0.9371377828
H       -0.8427684603    1.7050970178    0.6696877909
H       -0.1586461591   -0.4021865456   -2.1242388993
H        0.0916062906   -4.2013387487    1.2279666204
H       -0.1082753813   -4.0198621402    4.4038000119
16   
Scan Cycle 7/3600 ; Dihedral 6-5-7-15 = -180.00, Dihedral 7-8-9-16 = -143.39 ; Iteration 5 Energy -893.59834111
C        0.0070044211    1.3740549599    0.0652158042
N        0.0000386887   -0.0727095634   -0.0208936451
C       -0.0893863406   -0.8351702574   -1.1327649063
C       -0.0541770182   -2.1358495763   -0.6934275515
C        0.0588466945   -2.0569804208    0.7121892696
N        0.0903297850   -0.7834937708    1.1014318051
C        0.1320107313   -3.1805091028    1.6387169033
N        0.2496135629   -2.9879684117    2.8924860778
O        0.3255105871   -4.2101990362    3.5537645607
Cl      -0.1307630203   -3.5638154360   -1.6461119438
H        0.9388354126    1.7076286494    0.5270657980
H       -0.0737993791    1.7876996152   -0.9411245482
H       -0.8391505954    1.7077139075    0.6698544984
H       -0.1689402478   -0.4055813218   -2.1226676475
H        0.0996160064   -4.1974387135    1.2366273579
H       -0.1625913100   -4.0452989544    4.3719242407
16   
Scan Cycle 8/3600 ; Dihedral 6-5-7-15 = -180.00, Dihedral 7-8-9-16 = -137.29 ; Iteration 6 Energy -893.59697258
C        0.0077149755    1.3756625784    0.0615101524
N        0.0005801053   -0.0713235941   -0.0209746473
C       -0.0941205291   -0.8366010679   -1.1304593152
C       -0.0565159375   -2.1361003343   -0.6878052375
C        0.0632968265   -2.0537931479    0.7169535456
N        0.0964918546   -0.7793251488    1.1026847546
C        0.1409861698   -3.1751504788    1.6460196152
N        0.2679369876   -2.9796899235    2.8984053846
O        0.3509853441   -4.2059658249    3.5603165394
Cl      -0.1374818180   -3.5664900880   -1.6364454135
H        0.9416895472    1.7105453074    0.5180531108
H       -0.0779721872    1.7867892113   -0.9454588673
H       -0.8355914858    1.7107195808    0.6693497023
H       -0.1785878197   -0.4095858691   -2.1210755945
H        0.1067715080   -4.1931658909    1.2465463834
H       -0.2131921316   -4.0744482101    4.3347330336
16   
Scan Cycle 9/3600 ; Dihedral 6-5-7-15 = -180.00, Dihedral 7-8-9-16 = -131.19 ; Iteration 6 Energy -893.59554415
C        0.0085835272    1.3775258145    0.0573403005
N        0.0011157430   -0.0696933188   -0.0210204291
C       -0.0986190502   -0.8385405023   -1.1276150256
C       -0.0589415795   -2.1368487197   -0.6816312047
C        0.0672446010   -2.0498562849    0.7221951069
N        0.1022500157   -0.7743857555    1.1042528920
C        0.1492782445   -3.1684687866    1.6543828216
N        0.2841708696   -2.9704342006    2.9055663095
O        0.3752491661   -4.2008924872    3.5677925309
Cl      -0.1441150780   -3.5701215641   -1.6255659736
H        0.9445980237    1.7137261043    0.5087108054
H       -0.0816507972    1.7857943808   -0.9503936524
H       -0.8319826083    1.7143142289    0.6680155361
H       -0.1876510527   -0.4144385354   -2.1190805532
H        0.1131862951   -4.1875267214    1.2578118107
H       -0.2597361347   -4.1081330635    4.2915711620
16   
Scan Cycle 10/3600 ; Dihedral 6-5-7-15 = -180.00, Dihedral 7-8-9-16 = -125.08 ; Iteration 4 Energy -893.59411487
C        0.0095962787    1.3795528484    0.0523383407
N        0.0016292516   -0.0679207049   -0.0211320065
C       -0.1028958966   -0.8401166752   -1.1249271330
C       -0.0614104221   -2.1367718370   -0.6742825880
C        0.0706555774   -2.0456665938    0.7286398340
N        0.1075080965   -0.7689726322    1.1060649057
C        0.1567480126   -3.1614174354    1.6640654108
N        0.2982247178   -2.9607500531    2.9141072777
O        0.3979551343   -4.1953821999    3.5765754740
Cl      -0.1506061447   -3.5731413450   -1.6130321347
H        0.9474963207    1.7171291966    0.4987375923
H       -0.0847070175    1.7844536276   -0.9563848617
H       -0.8284228913    1.7185134668    0.6653083502
H       -0.1960763601   -0.4193313377   -2.1174384523
H        0.1187236545   -4.1815108151    1.2707437680
H       -0.3014171786   -4.1463506700    4.2431670997
16   
Scan Cycle 11/3600 ; Dihedral 6-5-7-15 = -180.00, Dihedral 7-8-9-16 = -118.98 ; Iteration 8 Energy -893.59273319
C        0.0107649853    1.3811819525    0.0480448557
N        0.0021194260   -0.0665322400   -0.0206506470
C       -0.1066817281   -0.8423790231   -1.1215078484
C       -0.0639269289   -2.1377940640   -0.6674058069
C        0.0732800218   -2.0416366488    0.7346100257
N        0.1120079359   -0.7639933448    1.1083660071
C        0.1628447865   -3.1545356786    1.6731978554
N        0.3098565178   -2.9492944821    2.9218151174
O        0.4188731507   -4.1861727093    3.5868563785
Cl      -0.1569060840   -3.5771435732   -1.6012699544
H        0.9503864071    1.7199635868    0.4898906359
H       -0.0871112205    1.7827960748   -0.9616537929
H       -0.8249117811    1.7224233698    0.6629467184
H       -0.2034131230   -0.4245869726   -2.1149442814
H        0.1230739383   -4.1759526574    1.2840742932
H       -0.3372678271   -4.1840668551    4.1902676331
16   
Scan Cycle 12/3600 ; Dihedral 6-5-7-15 = -180.00, Dihedral 7-8-9-16 = -112.88 ; Iteration 7 Energy -893.59142036
C        0.0120077710    1.3830004540    0.0433087909
N        0.0025426133   -0.0649426725   -0.0203767799
C       -0.1101420749   -0.8446161947   -1.1181545132
C       -0.0664088217   -2.1385552605   -0.6599294005
C        0.0752932306   -2.0373058559    0.7411876658
N        0.1159014397   -0.7585673931    1.1106680223
C        0.1678019010   -3.1472621154    1.6831485039
N        0.3204934478   -2.9383507420    2.9303582131
O        0.4367653835   -4.1768991872    3.5985494192
Cl      -0.1628819459   -3.5811046912   -1.5885034417
H        0.9531993257    1.7229208187    0.4809207711
H       -0.0889844418    1.7811772117   -0.9674456960
H       -0.8215272143    1.7267293922    0.6597330039
H       -0.2099475926   -0.4301469906   -2.1126818304
H        0.1262195047   -4.1697396777    1.2976539894
H       -0.3673478143   -4.2241041291    4.1342565511
16   
Scan Cycle 13/3600 ; Dihedral 6-5-7-15 = -180.00, Dihedral 7-8-9-16 = -106.78 ; Iteration 7 Energy -893.59017172
C        0.0132399019    1.3846116028    0.0387337157
N        0.0028819108   -0.0635269583   -0.0200874932
C       -0.1132497054   -0.8466800135   -1.1150219371
C       -0.0688289097   -2.1390770315   -0.6525075431
C        0.0767660198   -2.0332737911    0.7477813822
N        0.1191530573   -0.7534672528    1.1129550170
C        0.1716644156   -3.1405206386    1.6929841069
N        0.3309155774   -2.9281929607    2.9386883755
O        0.4511030411   -4.1665308953    3.6125765124
Cl      -0.1684965576   -3.5846674557   -1.5759835140
H        0.9558232393    1.7255218324    0.4725656595
H       -0.0903904738    1.7794727232   -0.9730579980
H       -0.8183953969    1.7308211254    0.6563364353
H       -0.2156419030   -0.4354408830   -2.1106329658
H        0.1282692434   -4.1636717056    1.3099022691
H       -0.3918302599   -4.2631542163    4.0775184112
16   
Scan Cycle 14/3600 ; Dihedral 6-5-7-15 = -180.00, Dihedral 7-8-9-16 = -100.68 ; Iteration 7 Energy -893.58898919
C        0.0145062615    1.3858007940    0.0350549014
N        0.0031809794   -0.0624998138   -0.0195573994
C       -0.1160429511   -0.8489580054   -1.1118051494
C       -0.0711851055   -2.1401345337   -0.6459160056
C        0.0777673261   -2.0298471592    0.7535953415
N        0.1219519910   -0.7491766547    1.1151918727
C        0.1746677468   -3.1346963190    1.7017133369
N        0.3404905345   -2.9176846779    2.9456348068
O        0.4618589977   -4.1531860867    3.6288373748
Cl      -0.1738256527   -3.5884069364   -1.5649068578
H        0.9583490591    1.7274376601    0.4655684180
H       -0.0913973611    1.7778003711   -0.9776157541
H       -0.8154064440    1.7342888873    0.6536960899
H       -0.2206622831   -0.4405172778   -2.1083341874
H        0.1295110471   -4.1585024585    1.3208651285
H       -0.4107814701   -4.2993862175    4.0207857110
16   
Scan Cycle 15/3600 ; Dihedral 6-5-7-15 = -180.00, Dihedral 7-8-9-16 = -94.58 ; Iteration 8 Energy -893.58790542
C        0.0159472763    1.3871730239    0.0306998904
N        0.0034626615   -0.0612865788   -0.0191411093
C       -0.1185209484   -0.8508657440   -1.1088201512
C       -0.0735847550   -2.1405259329   -0.6387522116
C        0.0781433401   -2.0261191056    0.7600702676
N        0.1241351224   -0.7444623671    1.1175482418
C        0.1765789697   -3.1285357537    1.7111459504
N        0.3476735480   -2.9083074990    2.9536415660
O        0.4698603788   -4.1400267216    3.6459512612
Cl      -0.1790587503   -3.5915697227   -1.5530348761
H        0.9609119378    1.7295340076    0.4581677273
H       -0.0917353490    1.7759406327   -0.9830333536
H       -0.8124545489    1.7382965256    0.6498768927
H       -0.2248710964   -0.4454530281   -2.1064097243
H        0.1296125934   -4.1529071231    1.3323370434
H       -0.4231196031   -4.3384912843    3.9625932730
16   
Scan Cycle 16/3600 ; Dihedral 6-5-7-15 = -180.00, Dihedral 7-8-9-16 = -88.47 ; Iteration 6 Energy -893.58697924
C        0.0176148939    1.3885792689    0.0266113624
N        0.0037365848   -0.0600158828   -0.0189673764
C       -0.1206903120   -0.8529025147   -1.1059571463
C       -0.0760599884   -2.1411048178   -0.6318832257
C        0.0779552451   -2.0225339538    0.7662818166
N        0.1257413004   -0.7398401729    1.1195818683
C        0.1775264218   -3.1226241151    1.7202312431
N        0.3517909431   -2.8993116015    2.9615518847
O        0.4749247946   -4.1249541969    3.6646970772
Cl      -0.1842175404   -3.5948535911   -1.5415683488
H        0.9635928557    1.7313633123    0.4514979979
H       -0.0913963745    1.7744658110   -0.9880794027
H       -0.8094432180    1.7422979199    0.6461115705
H       -0.2283272480   -0.4505284779   -2.1046396012
H        0.1287239428   -4.1474792799    1.3429577469
H       -0.4284932452   -4.3781131293    3.9045096202
16   
Scan Cycle 17/3600 ; Dihedral 6-5-7-15 = -180.00, Dihedral 7-8-9-16 = -82.37 ; Iteration 6 Energy -893.58627812
C        0.0194308380    1.3895677086    0.0228177568
N        0.0040581158   -0.0591445436   -0.0183680454
C       -0.1225279256   -0.8547033725   -1.1031461140
C       -0.0785128501   -2.1415329967   -0.6253417302
C        0.0772880772   -2.0193610078    0.7722842821
N        0.1269052411   -0.7358070567    1.1219541844
C        0.1775631554   -3.1176363016    1.7285322186
N        0.3530290013   -2.8911163391    2.9689383971
O        0.4769657486   -4.1076458517    3.6853774299
Cl      -0.1892483551   -3.5976533638   -1.5309633529
H        0.9663016420    1.7327000665    0.4454309088
H       -0.0905237349    1.7725054104   -0.9928920118
H       -0.8064712027    1.7459794959    0.6423176042
H       -0.2310424894   -0.4549753054   -2.1028036414
H        0.1267962418   -4.1425793931    1.3512684065
H       -0.4270292107   -4.4161591806    3.8475612874
16   
Scan Cycle 18/3600 ; Dihedral 6-5-7-15 = -180.00, Dihedral 7-8-9-16 = -76.27 ; Iteration 6 Energy -893.58585975
C        0.0215260165    1.3905573188    0.0194984279
N        0.0043949762   -0.0582447506   -0.0180016720
C       -0.1240281964   -0.8568299927   -1.1003382864
C       -0.0810299463   -2.1424809534   -0.6193364218
C        0.0760660032   -2.0163673686    0.7777777018
N        0.1275216805   -0.7319463159    1.1239770172
C        0.1765148005   -3.1127599446    1.7363003155
N        0.3506383820   -2.8833647956    2.9762936247
O        0.4759036221   -4.0881719885    3.7069907992
Cl      -0.1942690006   -3.6009170035   -1.5210314371
H        0.9691976136    1.7336697064    0.4403391879
H       -0.0889357870    1.7710491731   -0.9970743502
H       -0.8033663876    1.7495463026    0.6388601047
H       -0.2329975633   -0.4596888240   -2.1009735851
H        0.1237175735   -4.1376463092    1.3580891378
H       -0.4178689161   -4.4538883526    3.7915986112
16   
Scan Cycle 19/3600 ; Dihedral 6-5-7-15 = -180.00, Dihedral 7-8-9-16 = -70.17 ; Iteration 6 Energy -893.58578859
C        0.0239045890    1.3913491395    0.0159702115
N        0.0048134361   -0.0575303849   -0.0173683837
C       -0.1252009233   -0.8585252596   -1.0977207321
C       -0.0836474357   -2.1428515775   -0.6131503274
C        0.0742250980   -2.0135195684    0.7835970254
N        0.1275956170   -0.7282691160    1.1263678767
C        0.1742216801   -3.1081746234    1.7440447833
N        0.3443103855   -2.8763348121    2.9841553076
O        0.4717657579   -4.0677231180    3.7282690735
Cl      -0.1993232377   -3.6034577337   -1.5110904389
H        0.9722721046    1.7344109470    0.4352864152
H       -0.0866261897    1.7690830396   -1.0016274562
H       -0.8001602844    1.7532160497    0.6347583534
H       -0.2341161419   -0.4638341756   -2.0993441848
H        0.1193930176   -4.1331844169    1.3650769156
H       -0.4004412489   -4.4920214520    3.7357146750
16   
Scan Cycle 20/3600 ; Dihedral 6-5-7-15 = -180.00, Dihedral 7-8-9-16 = -64.07 ; Iteration 6 Energy -893.58609151
C        0.0265950629    1.3922200350    0.0127581352
N        0.0052201057   -0.0567251433   -0.0169725804
C       -0.1260173051   -0.8606399236   -1.0950104888
C       -0.0864483864   -2.1438202892   -0.6073242125
C        0.0716272821   -2.0107428843    0.7890788524
N        0.1269498543   -0.7246204801    1.1284756884
C        0.1704656751   -3.1030517207    1.7519288695
N        0.3347438864   -2.8689124976    2.9924829570
O        0.4645093135   -4.0471067821    3.7477928866
Cl      -0.2044608438   -3.6066440590   -1.5014952292
H        0.9755446203    1.7348789851    0.4310963193
H       -0.0834657278    1.7675852279   -1.0057645250
H       -0.7968257302    1.7569514854    0.6307250912
H       -0.2343385174   -0.4684433488   -2.0976771165
H        0.1137887655   -4.1287516475    1.3735267868
H       -0.3749122071   -4.5294183846    3.6792241037
16   
Scan Cycle 21/3600 ; Dihedral 6-5-7-15 = -180.00, Dihedral 7-8-9-16 = -57.97 ; Iteration 6 Energy -893.58671567
C        0.0294276175    1.3929080768    0.0095608553
N        0.0056197035   -0.0560873638   -0.0163178225
C       -0.1264113600   -0.8625661094   -1.0923477728
C       -0.0892831798   -2.1445761373   -0.6015064124
C        0.0683320592   -2.0081006932    0.7946911565
N        0.1255672373   -0.7211529680    1.1309001900
C        0.1650680741   -3.0981637951    1.7598663149
N        0.3234250875   -2.8620099788    3.0009126764
O        0.4542963464   -4.0274206591    3.7657996998
Cl      -0.2094500918   -3.6094800084   -1.4921442761
H        0.9787778908    1.7351114033    0.4273697208
H       -0.0795822788    1.7657353244   -1.0100069372
H       -0.7936343843    1.7606863710    0.6261997203
H       -0.2335491802   -0.4727232168   -2.0960645771
H        0.1066546994   -4.1246496308    1.3818537661
H       -0.3422882254   -4.5646435292    3.6240668712
16   
Scan Cycle 22/3600 ; Dihedral 6-5-7-15 = -180.00, Dihedral 7-8-9-16 = -51.86 ; Iteration 7 Energy -893.58756066
C        0.0323300006    1.3934779188    0.0064638176
N        0.0059890776   -0.0555483377   -0.0156833736
C       -0.1265387381   -0.8642599195   -1.0899679283
C       -0.0921189038   -2.1450197725   -0.5957943534
C        0.0645580936   -2.0057199049    0.8003272100
N        0.1236774190   -0.7179193919    1.1332800626
C        0.1585957912   -3.0937748492    1.7677197930
N        0.3111444315   -2.8560946079    3.0093598779
O        0.4409137398   -4.0091251833    3.7827568720
Cl      -0.2142149689   -3.6118455245   -1.4831509777
H        0.9819589630    1.7351138098    0.4241091343
H       -0.0752441553    1.7638489869   -1.0141515768
H       -0.7905593269    1.7643046218    0.6215058571
H       -0.2320816596   -0.4766989119   -2.0947457436
H        0.0984090673   -4.1209269241    1.3891292095
H       -0.3038655542   -4.5968673755    3.5716487476
16   
Scan Cycle 23/3600 ; Dihedral 6-5-7-15 = -180.00, Dihedral 7-8-9-16 = -45.76 ; Iteration 6 Energy -893.58853268
C        0.0353258384    1.3938736091    0.0039093754
N        0.0063062656   -0.0551640227   -0.0150818801
C       -0.1263032977   -0.8658676087   -1.0878389979
C       -0.0950005408   -2.1456182819   -0.5909587458
C        0.0601697196   -2.0038030665    0.8051955217
N        0.1211101623   -0.7152875306    1.1354317356
C        0.1507021746   -3.0899277087    1.7747566762
N        0.2980403431   -2.8505908305    3.0168402496
O        0.4248461950   -3.9915880001    3.7985804350
Cl      -0.2188134907   -3.6140415255   -1.4755827694
H        0.9850698017    1.7346889087    0.4219695806
H       -0.0702981125    1.7622003396   -1.0176509122
H       -0.7876295292    1.7676026944    0.6171048931
H       -0.2297490832   -0.4802329572   -2.0935808184
H        0.0889826995   -4.1179019100    1.3960781339
H       -0.2597993662   -4.6253740639    3.5236400609
16   
Scan Cycle 24/3600 ; Dihedral 6-5-7-15 = -180.00, Dihedral 7-8-9-16 = -39.66 ; Iteration 6 Energy -893.58955569
C        0.0383359107    1.3941380680    0.0016680436
N        0.0065906412   -0.0548897327   -0.0145525273
C       -0.1258717664   -0.8672394663   -1.0860696874
C       -0.0978464013   -2.1460345907   -0.5866474684
C        0.0554713637   -2.0022071923    0.8096174762
N        0.1181941917   -0.7130323837    1.1373805641
C        0.1420240119   -3.0865429285    1.7811587845
N        0.2848329360   -2.8459388405    3.0235944265
O        0.4059921425   -3.9755934719    3.8129311500
Cl      -0.2232115297   -3.6158510294   -1.4688567861
H        0.9881051149    1.7339834126    0.4204644827
H       -0.0650851191    1.7606764306   -1.0207607239
H       -0.7848128249    1.7706224825    0.6129165049
H       -0.2269532185   -0.4833054907   -2.0927082230
H        0.0788824266   -4.1152968170    1.4024210420
H       -0.2116756370   -4.6504307540    3.4802717089
16   
Scan Cycle 25/3600 ; Dihedral 6-5-7-15 = -180.00, Dihedral 7-8-9-16 = -33.56 ; Iteration 6 Energy -893.59056356
C        0.0414267303    1.3945059017   -0.0003252055
N        0.0068008430   -0.0544934284   -0.0141641253
C       -0.1251336426   -0.8686773303   -1.0843664812
C       -0.1007761375   -2.1467262184   -0.5829451555
C        0.0501517025   -2.0005017610    0.8134306958
N        0.1146637887   -0.7107782078    1.1391302290
C        0.1321231180   -3.0830435797    1.7869748214
N        0.2712291378   -2.8422630295    3.0298433541
O        0.3852635650   -3.9618377192    3.8255313234
Cl      -0.2274588661   -3.6179373753   -1.4628074927
H        0.9910557423    1.7331797263    0.4197433940
H       -0.0592673829    1.7595209673   -1.0235696693
H       -0.7821522747    1.7736901229    0.6086739286
H       -0.2233978035   -0.4863111296   -2.0918774325
H        0.0676442309   -4.1123721400    1.4080225117
H       -0.1592030929   -4.6727391495    3.4415440460
16   
Scan Cycle 26/3600 ; Dihedral 6-5-7-15 = -180.00, Dihedral 7-8-9-16 = -27.46 ; Iteration 6 Energy -893.59149850
C        0.0444818427    1.3944115847   -0.0017178363
N        0.0070040604   -0.0545426616   -0.0136075214
C       -0.1243279523   -0.8695679231   -1.0832311995
C       -0.1036436088   -2.1469282473   -0.5799888861
C        0.0447372905   -1.9996766510    0.8166362630
N        0.1110089730   -0.7095642485    1.1407545816
C        0.1218643851   -3.0811039359    1.7914651194
N        0.2579943306   -2.8387624954    3.0343760012
O        0.3623112804   -3.9485650484    3.8369193988
Cl      -0.2315368907   -3.6190046894   -1.4583258273
H        0.9939067181    1.7317917554    0.4198515921
H       -0.0533609494    1.7582018830   -1.0256771976
H       -0.7796053065    1.7760812281    0.6050373631
H       -0.2196661712   -0.4882430316   -2.0914252782
H        0.0561605632   -4.1109291449    1.4124567731
H       -0.1043490780   -4.6902965075    3.4092807020
16   
Scan Cycle 27/3600 ; Dihedral 6-5-7-15 = -180.00, Dihedral 7-8-9-16 = -21.36 ; Iteration 6 Energy -893.59230906
C        0.0475413666    1.3943433303   -0.0027168144
N        0.0071753515   -0.0545542881   -0.0132145043
C       -0.1234635112   -0.8705123599   -1.0822157520
C       -0.1065399584   -2.1474014209   -0.5777200407
C        0.0391933771   -1.9989490195    0.8191243783
N        0.1072266537   -0.7085483001    1.1420483158
C        0.1113671220   -3.0793367236    1.7951475141
N        0.2449538490   -2.8358331858    3.0380908009
O        0.3375199808   -3.9374931730    3.8466601754
Cl      -0.2355474589   -3.6202252471   -1.4547749049
H        0.9967156032    1.7302601913    0.4205855386
H       -0.0473275092    1.7572839055   -1.0272569982
H       -0.7771010973    1.7782994423    0.6018398552
H       -0.2157942483   -0.4900480934   -2.0910144456
H        0.0444860738   -4.1094695415    1.4160330333
H       -0.0474320224   -4.7044267653    3.3821960270
16   
Scan Cycle 28/3600 ; Dihedral 6-5-7-15 = -180.00, Dihedral 7-8-9-16 = -15.25 ; Iteration 4 Energy -893.59295367
C        0.0505847110    1.3941256917   -0.0035450257
N        0.0073822920   -0.0547074200   -0.0127293872
C       -0.1226061766   -0.8710288274   -1.0815214974
C       -0.1092934640   -2.1474784769   -0.5758795379
C        0.0336347332   -1.9985402736    0.8212655357
N        0.1035516949   -0.7079549192    1.1432815772
C        0.1006231619   -3.0783620361    1.7980345165
N        0.2318801223   -2.8334366551    3.0408870807
O        0.3112118688   -3.9284621430    3.8547345549
Cl      -0.2393659451   -3.6207564998   -1.4521115535
H        0.9995008085    1.7285815892    0.4214884332
H       -0.0413468932    1.7562679815   -1.0286384881
H       -0.7746047606    1.7802969358    0.5988513709
H       -0.2119754971   -0.4911268496   -2.0908060778
H        0.0325110235   -4.1087124889    1.4188678466
H        0.0112725108   -4.7152065639    3.3605778785
16   
Scan Cycle 29/3600 ; Dihedral 6-5-7-15 = -180.00, Dihedral 7-8-9-16 = -9.15 ; Iteration 6 Energy -893.59340190
C        0.0535366786    1.3943126041   -0.0047227945
N        0.0075194617   -0.0544360141   -0.0127455948
C       -0.1218789732   -0.8715215532   -1.0810270063
C       -0.1122111226   -2.1474618887   -0.5740635151
C        0.0283520796   -1.9975615985    0.8232465965
N        0.0999431903   -0.7067536498    1.1440943581
C        0.0908471030   -3.0764985543    1.8011196266
N        0.2196945192   -2.8327928051    3.0445037923
O        0.2829729665   -3.9244494575    3.8609336377
Cl      -0.2433545877   -3.6213892857   -1.4490884641
H        1.0022133538    1.7272775572    0.4220137812
H       -0.0355362021    1.7557442903   -1.0303182599
H       -0.7721569125    1.7826154068    0.5956100188
H       -0.2083968739   -0.4924425147   -2.0908695175
H        0.0215658942   -4.1066902344    1.4213529778
H        0.0698460823   -4.7243300997    3.3427163035
16   
Scan Cycle 30/3600 ; Dihedral 6-5-7-15 = -180.00, Dihedral 7-8-9-16 = -3.05 ; Iteration 7 Energy -893.59363130
C        0.0566259110    1.3941553454   -0.0049473192
N        0.0076681160   -0.0545072144   -0.0126029067
C       -0.1210399942   -0.8719228512   -1.0807266799
C       -0.1151962534   -2.1477675816   -0.5734866529
C        0.0226744318   -1.9973539851    0.8240567402
N        0.0960969041   -0.7065544928    1.1446721860
C        0.0801926787   -3.0759630720    1.8024927997
N        0.2066692136   -2.8313548698    3.0459447110
O        0.2545114773   -3.9201802681    3.8654652803
Cl      -0.2473991520   -3.6218183596   -1.4482214082
H        1.0050059670    1.7253365866    0.4238340361
H       -0.0293730013    1.7554245640   -1.0308613062
H       -0.7696338991    1.7843590070    0.5933730049
H       -0.2045135717   -0.4930518071   -2.0908994940
H        0.0097942089   -4.1062542430    1.4229246705
H        0.1308743410   -4.7288353033    3.3316929826
16   
Scan Cycle 31/3600 ; Dihedral 6-5-7-15 = -180.00, Dihedral 7-8-9-16 = 3.05 ; Iteration 4 Energy -893.59363111
C        0.0596895768    1.3941624023   -0.0053420738
N        0.0078142618   -0.0543995675   -0.0127166697
C       -0.1202555895   -0.8720307729   -1.0807565732
C       -0.1181022976   -2.1477445954   -0.5731574678
C        0.0170535890   -1.9969819666    0.8246133343
N        0.0923573857   -0.7062224304    1.1449666727
C        0.0696072211   -3.0752831418    1.8036708799