16   
Scan Cycle 1/3600 ; Dihedral 6-5-7-15 = -180.00, Dihedral 7-8-9-16 = -180.00 ; Iteration 5 Energy -0.03912396
C        0.0013454245    1.3964059512    0.0226489200
N       -0.0061010580   -0.0566491577   -0.0627600647
C       -0.0593063906   -0.8405907353   -1.1868806877
C       -0.0374596149   -2.0786629876   -0.6625991149
C        0.0270805110   -2.0385548212    0.7403319777
N        0.0458468192   -0.7513080811    1.1055973831
C        0.0680714820   -3.1695123965    1.6734835232
N        0.1266581819   -3.0307557373    2.9455340081
O        0.1527833686   -4.3234989067    3.5653410575
Cl      -0.0848825188   -3.5215970717   -1.6400737071
H        0.9259604189    1.7406515581    0.5340837324
H       -0.0434500573    1.8718809888   -0.9797695088
H       -0.8709515786    1.7450001661    0.6164464304
H       -0.1051429509   -0.4715032680   -2.2000844968
H        0.0457724135   -4.1690131786    1.2209271536
H        0.1967755496   -4.2002923225    4.5197733941
16   
Scan Cycle 2/3600 ; Dihedral 6-5-7-15 = -180.00, Dihedral 7-8-9-16 = -173.90 ; Iteration 4 Energy -0.03909624
C        0.0008876318    1.3967448872    0.0223005123
N       -0.0054229825   -0.0563300334   -0.0628852616
C       -0.0648383312   -0.8407718264   -1.1863713046
C       -0.0388730830   -2.0787573820   -0.6620305305
C        0.0343086991   -2.0383524688    0.7404707186
N        0.0552276470   -0.7509672029    1.1050845511
C        0.0809460632   -3.1691052335    1.6736392718
N        0.1500624788   -3.0307456639    2.9452140226
O        0.1798117223   -4.3235569161    3.5648188355
Cl      -0.0916748323   -3.5219169558   -1.6388738080
H        0.9284680979    1.7421246159    0.5276111149
H       -0.0509983536    1.8720249377   -0.9798851968
H       -0.8678775545    1.7444705881    0.6217566589
H       -0.1173240873   -0.4719941405   -2.1993538115
H        0.0559175211   -4.1685976680    1.2211169890
H        0.1343793633   -4.2022695377    4.5193872382
16   
Scan Cycle 3/3600 ; Dihedral 6-5-7-15 = -180.00, Dihedral 7-8-9-16 = -167.80 ; Iteration 5 Energy -0.03901434
C        0.0008239236    1.3966052539    0.0219751264
N       -0.0052830562   -0.0565184920   -0.0623461204
C       -0.0707691250   -0.8411231391   -1.1853869459
C       -0.0410715951   -2.0790065850   -0.6609758147
C        0.0407828663   -2.0380445735    0.7410284829
N        0.0620767169   -0.7506610642    1.1055440918
C        0.0944908212   -3.1685533789    1.6741006988
N        0.1736027180   -3.0290842898    2.9449752952
O        0.2068046919   -4.3212587234    3.5657787240
Cl      -0.0989597795   -3.5224756964   -1.6370726523
H        0.9310827563    1.7426715263    0.5218746242
H       -0.0568626966    1.8712722327   -0.9801833241
H       -0.8647068869    1.7443167742    0.6260926660
H       -0.1292891047   -0.4725183847   -2.1981033542
H        0.0681972171   -4.1682692762    1.2221516475
H        0.0720805326   -4.2053521838    4.5125468548
16   
Scan Cycle 4/3600 ; Dihedral 6-5-7-15 = -180.00, Dihedral 7-8-9-16 = -161.69 ; Iteration 6 Energy -0.03887989
C        0.0007090857    1.3967668484    0.0214439005
N       -0.0051560844   -0.0563998270   -0.0621721259
C       -0.0765141018   -0.8420463265   -1.1841216432
C       -0.0431112128   -2.0796616496   -0.6593104670
C        0.0470827739   -2.0374198774    0.7421437357
N        0.0691908508   -0.7497994300    1.1057365200
C        0.1075270863   -3.1672160071    1.6757037513
N        0.1969238642   -3.0264850414    2.9457671283
O        0.2333588182   -4.3178873157    3.5680661536
Cl      -0.1058848479   -3.5238346736   -1.6340645123
H        0.9336210199    1.7434741361    0.5159374355
H       -0.0628108115    1.8709630830   -0.9805852473
H       -0.8615460978    1.7443719710    0.6302810979
H       -0.1409780268   -0.4741516702   -2.1967331715
H        0.0796049695   -4.1672825888    1.2246428739
H        0.0109827147   -4.2113916313    4.4992645704
16   
Scan Cycle 5/3600 ; Dihedral 6-5-7-15 = -180.00, Dihedral 7-8-9-16 = -155.59 ; Iteration 6 Energy -0.03869685
C        0.0006125781    1.3969525205    0.0202562259
N       -0.0049106087   -0.0563023325   -0.0618123890
C       -0.0824229696   -0.8428556336   -1.1827241027
C       -0.0447207164   -2.0797761444   -0.6565567456
C        0.0536255936   -2.0365503556    0.7443151852
N        0.0768944307   -0.7485206245    1.1062987743
C        0.1200368276   -3.1655230816    1.6785223629
N        0.2193422712   -3.0233339819    2.9477014324
O        0.2592257529   -4.3138208729    3.5717824832
Cl      -0.1119767568   -3.5249590423   -1.6295124609
H        0.9362696858    1.7446753663    0.5088266284
H       -0.0691086801    1.8700720895   -0.9818688970
H       -0.8581769602    1.7447382602    0.6338643892
H       -0.1531586505   -0.4760244784   -2.1953087202
H        0.0902504212   -4.1659907509    1.2284950809
H       -0.0487822187   -4.2207809379    4.4797207529
16   
Scan Cycle 6/3600 ; Dihedral 6-5-7-15 = -180.00, Dihedral 7-8-9-16 = -149.49 ; Iteration 5 Energy -0.03846917
C        0.0005569820    1.3974054360    0.0188074235
N       -0.0046256357   -0.0559518296   -0.0614625945
C       -0.0879746890   -0.8443645980   -1.1806405137
C       -0.0462961968   -2.0806767066   -0.6533476973
C        0.0598788581   -2.0350428490    0.7468763838
N        0.0843145710   -0.7465544218    1.1070805010
C        0.1316204054   -3.1627091047    1.6823568054
N        0.2409555696   -3.0191803174    2.9505797325
O        0.2843943737   -4.3087255625    3.5764954861
Cl      -0.1180250626   -3.5272798299   -1.6238730271
H        0.9388031656    1.7461978486    0.5016284387
H       -0.0750949672    1.8692906977   -0.9834697840
H       -0.8548915807    1.7454992315    0.6368862166
H       -0.1646928276   -0.4789323018   -2.1932929318
H        0.1000540750   -4.1636433923    1.2335342592
H       -0.1059770410   -4.2333323002    4.4538413017
16   
Scan Cycle 7/3600 ; Dihedral 6-5-7-15 = -180.00, Dihedral 7-8-9-16 = -143.39 ; Iteration 7 Energy -0.03820187
C        0.0006159427    1.3977345635    0.0170401440
N       -0.0045441226   -0.0557489529   -0.0608849586
C       -0.0933470284   -0.8458053789   -1.1784877022
C       -0.0483198881   -2.0811941996   -0.6492974815
C        0.0655554543   -2.0335614122    0.7502514035
N        0.0908040939   -0.7445077525    1.1082395398
C        0.1435047862   -3.1598508382    1.6869637954
N        0.2619552444   -3.0142074861    2.9541453129
O        0.3083947265   -4.3023913206    3.5827967410
Cl      -0.1246672340   -3.5293671641   -1.6171254506
H        0.9412641698    1.7475425268    0.4944349294
H       -0.0803422824    1.8680111861   -0.9855779122
H       -0.8516924695    1.7465966534    0.6390076689
H       -0.1755481314   -0.4819735781   -2.1912917112
H        0.1103490555   -4.1614040005    1.2396743738
H       -0.1609823169   -4.2478728460    4.4221113074
16   
Scan Cycle 8/3600 ; Dihedral 6-5-7-15 = -180.00, Dihedral 7-8-9-16 = -137.29 ; Iteration 5 Energy -0.03789923
C        0.0007513143    1.3981140610    0.0151169389
N       -0.0044156143   -0.0555020124   -0.0602810189
C       -0.0985487528   -0.8475784585   -1.1760191405
C       -0.0502580021   -2.0819591127   -0.6447612806
C        0.0709864762   -2.0318649691    0.7540784613
N        0.0971391723   -0.7421697329    1.1095499141
C        0.1546205089   -3.1565337801    1.6923367212
N        0.2820202228   -3.0083332237    2.9583744816
O        0.3308818931   -4.2948629139    3.5903959468
Cl      -0.1310570483   -3.5319336610   -1.6095269630
H        0.9437221364    1.7489568055    0.4871520703
H       -0.0853747192    1.8666658526   -0.9878778274
H       -0.8484666180    1.7478535654    0.6408048148
H       -0.1860736585   -0.4855930930   -2.1890424541
H        0.1198662975   -4.1588173018    1.2468617406
H       -0.2127936082   -4.2644420253    4.3848375951
16   
Scan Cycle 9/3600 ; Dihedral 6-5-7-15 = -180.00, Dihedral 7-8-9-16 = -131.19 ; Iteration 5 Energy -0.03756553
C        0.0009778606    1.3986412256    0.0126717314
N       -0.0041831613   -0.0551344327   -0.0595514822
C       -0.1033501752   -0.8495148350   -1.1732145106
C       -0.0520064672   -2.0827416567   -0.6395501138
C        0.0759357974   -2.0297061027    0.7585824102
N        0.1032491507   -0.7392979777    1.1112153435
C        0.1640853474   -3.1525464429    1.6987426416
N        0.3003244287   -3.0019115881    2.9636021701
O        0.3523613257   -4.2867072686    3.5991144680
Cl      -0.1369650253   -3.5348199973   -1.6007905152
H        0.9461214286    1.7507094598    0.4794326775
H       -0.0900407766    1.8650135835   -0.9909057563
H       -0.8452961615    1.7495622676    0.6416762969
H       -0.1958426894   -0.4896390991   -2.1865528400
H        0.1276382297   -4.1555471546    1.2550975421
H       -0.2600091122   -4.2843599811    4.3424299367
16   
Scan Cycle 10/3600 ; Dihedral 6-5-7-15 = -180.00, Dihedral 7-8-9-16 = -125.08 ; Iteration 4 Energy -0.03720376
C        0.0013322991    1.3991641840    0.0101584631
N       -0.0039784753   -0.0547742674   -0.0586758763
C       -0.1079701491   -0.8517771404   -1.1700178707
C       -0.0539308359   -2.0838748184   -0.6340012294
C        0.0804595865   -2.0273834194    0.7633920941
N        0.1088514237   -0.7362612825    1.1131362718
C        0.1732002624   -3.1481806319    1.7056709001
N        0.3176170961   -2.9946234918    2.9693004303
O        0.3717044554   -4.2773655229    3.6090223188
Cl      -0.1430161413   -3.5382013986   -1.5914650258
H        0.9485305440    1.7523969800    0.4718593423
H       -0.0942268529    1.8632159630   -0.9940716619
H       -0.8421262426    1.7514764339    0.6421593842
H       -0.2051148493   -0.4941274710   -2.1837098926
H        0.1351450949   -4.1520139242    1.2641356374
H       -0.3034772157   -4.3056701925    4.2951067146
16   
Scan Cycle 11/3600 ; Dihedral 6-5-7-15 = -180.00, Dihedral 7-8-9-16 = -118.98 ; Iteration 4 Energy -0.03681562
C        0.0018122333    1.3996840023    0.0075184339
N       -0.0037699032   -0.0544026658   -0.0580645883
C       -0.1123304634   -0.8540647835   -1.1670656545
C       -0.0557707606   -2.0847106782   -0.6279776341
C        0.0845082593   -2.0251345336    0.7686997363
N        0.1140829325   -0.7331248639    1.1148606417
C        0.1811010159   -3.1437824348    1.7132828843
N        0.3332101392   -2.9867145975    2.9756113023
O        0.3892347278   -4.2669947629    3.6203656945
Cl      -0.1487383408   -3.5414320218   -1.5814267706
H        0.9509506287    1.7539136429    0.4644580394
H       -0.0979609864    1.8615500503   -0.9973093486
H       -0.8389521916    1.7534111395    0.6423123584
H       -0.2137901834   -0.4989472473   -2.1812331401
H        0.1414117071   -4.1485541804    1.2741370531
H       -0.3419988143   -4.3286960654    4.2438309923
16   
Scan Cycle 12/3600 ; Dihedral 6-5-7-15 = -180.00, Dihedral 7-8-9-16 = -112.88 ; Iteration 6 Energy -0.03640154
C        0.0024134005    1.4003673665    0.0046790482
N       -0.0036066235   -0.0538737016   -0.0573477638
C       -0.1164215011   -0.8567143466   -1.1636186487
C       -0.0576583274   -2.0860271586   -0.6217325994
C        0.0881112387   -2.0224676107    0.7742018124
N        0.1187997472   -0.7295886351    1.1168425340
C        0.1881099326   -3.1387923142    1.7213687734
N        0.3477607982   -2.9785410617    2.9824166681
O        0.4041219975   -4.2561682787    3.6327476190
Cl      -0.1543935134   -3.5453470722   -1.5708249921
H        0.9533734619    1.7555507441    0.4570810203
H       -0.1011859592    1.8598491686   -1.0008543330
H       -0.8358013919    1.7557685454    0.6419059780
H       -0.2218435722   -0.5042375338   -2.1783045145
H        0.1468903390   -4.1443953160    1.2843735352
H       -0.3756700269   -4.3533827956    4.1890658629
16   
Scan Cycle 13/3600 ; Dihedral 6-5-7-15 = -180.00, Dihedral 7-8-9-16 = -106.78 ; Iteration 6 Energy -0.03596044
C        0.0031707862    1.4008580751    0.0013891288
N       -0.0033736731   -0.0535605559   -0.0561658726
C       -0.1201938769   -0.8590245111   -1.1601163779
C       -0.0595931665   -2.0867732135   -0.6148596779
C        0.0910391612   -2.0197302896    0.7803928905
N        0.1230497273   -0.7260076177    1.1194632102
C        0.1939628265   -3.1338347151    1.7300276121
N        0.3603306531   -2.9700146057    2.9897886934
O        0.4169366243   -4.2447998881    3.6460186186
Cl      -0.1598471348   -3.5487146968   -1.5595455121
H        0.9557979803    1.7572077124    0.4493569902
H       -0.1038616321    1.8572874778   -1.0051720545
H       -0.8326966225    1.7584182470    0.6404918125
H       -0.2291253914   -0.5091630744   -2.1753455311
H        0.1511017656   -4.1403171470    1.2953704320
H       -0.4036980272   -4.3798311975    4.1309056378
16   
Scan Cycle 14/3600 ; Dihedral 6-5-7-15 = -180.00, Dihedral 7-8-9-16 = -100.68 ; Iteration 6 Energy -0.03549000
C        0.0041717569    1.4015951843   -0.0018116912
N       -0.0032322009   -0.0529711840   -0.0553798863
C       -0.1233699579   -0.8618812095   -1.1564456113
C       -0.0618287436   -2.0881958394   -0.6080704396
C        0.0929409484   -2.0167251228    0.7865079339
N        0.1261265493   -0.7221030731    1.1218138597
C        0.1982824824   -3.1282468608    1.7390931469
N        0.3707531958   -2.9608449961    2.9976070382
O        0.4278122656   -4.2326054928    3.6600540527
Cl      -0.1655451232   -3.5529359336   -1.5480432760
H        0.9582093176    1.7586814854    0.4425635647
H       -0.1054180418    1.8553758418   -1.0092946311
H       -0.8297265825    1.7613131657    0.6386539104
H       -0.2350040117   -0.5148729640   -2.1723614402
H        0.1539796899   -4.1356464715    1.3068946369
H       -0.4251515444   -4.4079365295    4.0702188325
16   
Scan Cycle 15/3600 ; Dihedral 6-5-7-15 = -180.00, Dihedral 7-8-9-16 = -94.58 ; Iteration 6 Energy -0.03498711
C        0.0052894688    1.4020817429   -0.0052203628
N       -0.0029880470   -0.0526364986   -0.0542428596
C       -0.1262994451   -0.8642826965   -1.1529465500
C       -0.0639416415   -2.0889729410   -0.6010095912
C        0.0944001035   -2.0139074894    0.7929756648
N        0.1289691494   -0.7184282112    1.1245446978
C        0.2013764651   -3.1231520670    1.7482294822
N        0.3793336289   -2.9516006174    3.0054731746
O        0.4358836763   -4.2197590766    3.6753078492
Cl      -0.1708484918   -3.5563936706   -1.5364386436
H        0.9606320375    1.7600557791    0.4356338267
H       -0.1066198372    1.8527924449   -1.0138236408
H       -0.8267798816    1.7642376881    0.6362545367
H       -0.2403265359   -0.5199794324   -2.1695259271
H        0.1555446468   -4.1314265457    1.3184468926
H       -0.4406252962   -4.4366284087    4.0083414506
16   
Scan Cycle 16/3600 ; Dihedral 6-5-7-15 = -180.00, Dihedral 7-8-9-16 = -88.47 ; Iteration 7 Energy -0.03444853
C        0.0067235870    1.4027602451   -0.0085195398
N       -0.0028715503   -0.0520788806   -0.0535260455
C       -0.1284982949   -0.8670184790   -1.1495266998
C       -0.0664724204   -2.0901669710   -0.5941353426
C        0.0945330096   -2.0109712375    0.7993127369
N        0.1302666249   -0.7145874940    1.1269718057
C        0.2025467892   -3.1176873365    1.7575840020
N        0.3851917515   -2.9417900604    3.0136097133
O        0.4422124087   -4.2060815689    3.6911925741
Cl      -0.1765202148   -3.5603413402   -1.5248743613
H        0.9630482807    1.7611147733    0.4298974115
H       -0.1063554162    1.8508376949   -1.0181646791
H       -0.8240257080    1.7673931002    0.6332681924
H       -0.2438670935   -0.5255850426   -2.1669263486
H        0.1554649754   -4.1268776869    1.3303404255
H       -0.4483767290   -4.4669197158    3.9454961552
16   
Scan Cycle 17/3600 ; Dihedral 6-5-7-15 = -180.00, Dihedral 7-8-9-16 = -82.37 ; Iteration 5 Energy -0.03387098
C        0.0082916518    1.4033801538   -0.0120172748
N       -0.0026608577   -0.0515714578   -0.0528132178
C       -0.1305819731   -0.8694561732   -1.1463601548
C       -0.0688274823   -2.0908470539   -0.5870665762
C        0.0942693792   -2.0081038050    0.8059270875
N        0.1315337269   -0.7107762830    1.1294096636
C        0.2026171184   -3.1124212198    1.7671395605
N        0.3892585964   -2.9322499087    3.0220244211
O        0.4453615148   -4.1925215499    3.7076708481
Cl      -0.1816061069   -3.5637418622   -1.5131745581
H        0.9655664802    1.7621392427    0.4239959244
H       -0.1058610813    1.8486821351   -1.0227679040
H       -0.8211819442    1.7706017625    0.6299506691
H       -0.2471255048   -0.5309283552   -2.1646058383
H        0.1540134736   -4.1224448751    1.3423300650
H       -0.4500669911   -4.4977407501    3.8823572846
16   
Scan Cycle 18/3600 ; Dihedral 6-5-7-15 = -180.00, Dihedral 7-8-9-16 = -76.27 ; Iteration 7 Energy -0.03325361
C        0.0100427944    1.4041352963   -0.0155793125
N       -0.0023502661   -0.0509195775   -0.0519740959
C       -0.1323027105   -0.8720701376   -1.1428226092
C       -0.0711829098   -2.0920265847   -0.5803183684
C        0.0935557985   -2.0048512227    0.8122135293
N        0.1324909594   -0.7067218247    1.1320511352
C        0.2014178203   -3.1067556980    1.7764948976
N        0.3911341439   -2.9229218515    3.0304681218
O        0.4453903923   -4.1790015303    3.7245769213
Cl      -0.1866055516   -3.5676552001   -1.5017493053
H        0.9681633470    1.7632896867    0.4182520523
H       -0.1048727536    1.8465275197   -1.0275190150
H       -0.8183139434    1.7740856763    0.6262715336
H       -0.2496772475   -0.5362905383   -2.1618844787
H        0.1512840806   -4.1173893995    1.3536604494
H       -0.4451739541   -4.5294346143    3.8198585445
16   
Scan Cycle 19/3600 ; Dihedral 6-5-7-15 = -180.00, Dihedral 7-8-9-16 = -70.17 ; Iteration 5 Energy -0.03259601
C        0.0120720848    1.4047712374   -0.0191728290
N       -0.0021051675   -0.0503641253   -0.0513391246
C       -0.1335637645   -0.8742234019   -1.1399706732
C       -0.0737441754   -2.0924462044   -0.5735605177
C        0.0916624093   -2.0019549686    0.8186791306
N        0.1323451938   -0.7029575390    1.1344956487
C        0.1984240383   -3.1016329405    1.7858531256
N        0.3904024849   -2.9136604800    3.0389282612
O        0.4432736553   -4.1652460000    3.7418688692
Cl      -0.1914705798   -3.5706496896   -1.4905738850
H        0.9708094567    1.7640224292    0.4132184032
H       -0.1027614592    1.8443941511   -1.0323264353
H       -0.8155419360    1.7775816384    0.6219889244
H       -0.2509551761   -0.5412043333   -2.1599460283
H        0.1467471706   -4.1128844675    1.3650805096
H       -0.4325942352   -4.5615453061    3.7587766204
16   
Scan Cycle 20/3600 ; Dihedral 6-5-7-15 = -180.00, Dihedral 7-8-9-16 = -64.07 ; Iteration 6 Energy -0.03190243
C        0.0142340670    1.4055864438   -0.0223857417
N       -0.0018129732   -0.0496025639   -0.0510768439
C       -0.1346247178   -0.8767144318   -1.1370683416
C       -0.0763209549   -2.0935443341   -0.5675216192
C        0.0895788528   -1.9990065582    0.8243900788
N        0.1320896367   -0.6991952198    1.1364600872
C        0.1949234955   -3.0963954963    1.7945764007
N        0.3880222321   -2.9046631944    3.0470051563
O        0.4373585474   -4.1514111028    3.7595176682
Cl      -0.1963492456   -3.5742538002   -1.4802006799
H        0.9735564512    1.7646360598    0.4088765118
H       -0.1003768904    1.8430073945   -1.0365170496
H       -0.8126854985    1.7809554971    0.6181868725
H       -0.2518920277   -0.5463831668   -2.1579334859
H        0.1416688132   -4.1080951251    1.3755265710
H       -0.4143697877   -4.5929204019    3.7001644152
16   
Scan Cycle 21/3600 ; Dihedral 6-5-7-15 = -180.00, Dihedral 7-8-9-16 = -57.97 ; Iteration 6 Energy -0.03117931
C        0.0167853163    1.4062575568   -0.0259015227
N       -0.0015177742   -0.0489784314   -0.0504069260
C       -0.1350593837   -0.8786167349   -1.1343803998
C       -0.0791720446   -2.0940337717   -0.5615496178
C        0.0860337371   -1.9960279036    0.8302117731
N        0.1305623328   -0.6955460293    1.1389660008
C        0.1888496890   -3.0913926164    1.8031667921
N        0.3819587333   -2.8958926420    3.0551055756
O        0.4300551786   -4.1378289650    3.7768374612
Cl      -0.2011481464   -3.5770460241   -1.4702443489
H        0.9764059007    1.7650724242    0.4048951484
H       -0.0965781059    1.8409408970   -1.0413471504
H       -0.8099146249    1.7847500999    0.6131240808
H       -0.2511815112   -0.5506723196   -2.1561510775
H        0.1340314491   -4.1034495914    1.3856948199
H       -0.3871107459   -4.6255359485    3.6439793912
16   
Scan Cycle 22/3600 ; Dihedral 6-5-7-15 = -180.00, Dihedral 7-8-9-16 = -51.86 ; Iteration 7 Energy -0.03043746
C        0.0194656786    1.4069970538   -0.0294915077
N       -0.0010961507   -0.0482706811   -0.0497086983
C       -0.1352505702   -0.8802630884   -1.1317929248
C       -0.0820355707   -2.0943814134   -0.5559292156
C        0.0821883747   -1.9929221990    0.8357098139
N        0.1289041490   -0.6918583969    1.1414867583
C        0.1820905879   -3.0865223330    1.8112161393
N        0.3740316149   -2.8881352076    3.0629811808
O        0.4193214066   -4.1252368218    3.7940307304
Cl      -0.2059286758   -3.5795986738   -1.4607678552
H        0.9793139185    1.7656109399    0.4009668506
H       -0.0924998463    1.8388538755   -1.0462944958
H       -0.8071110700    1.7886546808    0.6078196213
H       -0.2499992304   -0.5545050978   -2.1544220657
H        0.1255617228   -4.0985974119    1.3945527429
H       -0.3539563390   -4.6578252253    3.5916429256
16   
Scan Cycle 23/3600 ; Dihedral 6-5-7-15 = -180.00, Dihedral 7-8-9-16 = -45.76 ; Iteration 8 Energy -0.02969257
C        0.0224145160    1.4077678837   -0.0323334181
N       -0.0007345644   -0.0474960590   -0.0499204123
C       -0.1352693606   -0.8819616830   -1.1300505443
C       -0.0849959373   -2.0947593715   -0.5511613418
C        0.0776623152   -1.9905346121    0.8404610429
N        0.1266959224   -0.6887782743    1.1427936535
C        0.1741935414   -3.0823353770    1.8185458925
N        0.3635753523   -2.8802620944    3.0702128257
O        0.4059913032   -4.1121506148    3.8110360872
Cl      -0.2105334371   -3.5819061853   -1.4526179931
H        0.9824301484    1.7654531689    0.3985216103
H       -0.0877270593    1.8380316706   -1.0500103952
H       -0.8041504405    1.7920273743    0.6034369969
H       -0.2482614606   -0.5584585129   -2.1535943271
H        0.1159064710   -4.0945704952    1.4030858050
H       -0.3141973101   -4.6880668179    3.5435945179
16   
Scan Cycle 24/3600 ; Dihedral 6-5-7-15 = -180.00, Dihedral 7-8-9-16 = -39.66 ; Iteration 6 Energy -0.02896339
C        0.0256606460    1.4084884592   -0.0351567990
N       -0.0003982437   -0.0467572791   -0.0498681087
C       -0.1348717069   -0.8833319499   -1.1283682561
C       -0.0882083169   -2.0950519205   -0.5469181549
C        0.0722337308   -1.9880841860    0.8447610993
N        0.1236864197   -0.6858169178    1.1443788566
C        0.1647646939   -3.0783615664    1.8251484994
N        0.3501624650   -2.8730704495    3.0770034941
O        0.3905539595   -4.0998639586    3.8272202110
Cl      -0.2152886887   -3.5839126993   -1.4453415407
H        0.9856627359    1.7651227128    0.3965960828
H       -0.0819608740    1.8369666316   -1.0538549679
H       -0.8011826859    1.7956498990    0.5984972910
H       -0.2454649323   -0.5617072304   -2.1527674711
H        0.1047410234   -4.0905395884    1.4103911853
H       -0.2670902258   -4.7177299566    3.5002785790
16   
Scan Cycle 25/3600 ; Dihedral 6-5-7-15 = -180.00, Dihedral 7-8-9-16 = -33.56 ; Iteration 6 Energy -0.02827254
C        0.0291509280    1.4091071930   -0.0380234600
N       -0.0000178974   -0.0461049883   -0.0495543132
C       -0.1341812065   -0.8841859019   -1.1269195918
C       -0.0916174970   -2.0949131300   -0.5430613513
C        0.0660515471   -1.9857046770    0.8487722814
N        0.1201304570   -0.6830649825    1.1461961318
C        0.1542049913   -3.0748236375    1.8310499808
N        0.3340893344   -2.8669074951    3.0833991588
O        0.3729050208   -4.0888688263    3.8424316149
Cl      -0.2201055757   -3.5852364921   -1.4388735713
H        0.9890099578    1.7646736249    0.3949236481
H       -0.0754925113    1.8355445224   -1.0578848265
H       -0.7981674086    1.7994279486    0.5930785112
H       -0.2418786076   -0.5640864629   -2.1521088845
H        0.0923107304   -4.0867125539    1.4164670574
H       -0.2133922628   -4.7461441416    3.4621076143
16   
Scan Cycle 26/3600 ; Dihedral 6-5-7-15 = -180.00, Dihedral 7-8-9-16 = -27.46 ; Iteration 7 Energy -0.02764471
C        0.0328679143    1.4097196650   -0.0403162328
N        0.0003930447   -0.0454370496   -0.0498354804
C       -0.1334785134   -0.8851308349   -1.1259792491
C       -0.0949659566   -2.0948935688   -0.5398510915
C        0.0595490068   -1.9837941043    0.8521965140
N        0.1165102230   -0.6807372373    1.1471901428
C        0.1426287440   -3.0716838947    1.8364448023
N        0.3156060197   -2.8610735088    3.0894088800
O        0.3530802506   -4.0788194615    3.8559960784
Cl      -0.2246190149   -3.5864893103   -1.4333954192
H        0.9926049967    1.7637347321    0.3941630718
H       -0.0687016269    1.8349789747   -1.0609795495
H       -0.7948889472    1.8027802851    0.5885154771
H       -0.2381918581   -0.5665762599   -2.1519615649
H        0.0787615719   -4.0834435818    1.4224002548
H       -0.1541558548   -4.7711348449    3.4280033663
16   
Scan Cycle 27/3600 ; Dihedral 6-5-7-15 = -180.00, Dihedral 7-8-9-16 = -21.36 ; Iteration 7 Energy -0.02710461
C        0.0368133682    1.4102184960   -0.0424865140
N        0.0007719493   -0.0448652927   -0.0498220256
C       -0.1324271869   -0.8856938807   -1.1251590075
C       -0.0987436816   -2.0947063888   -0.5371742252
C        0.0522567130   -1.9819763568    0.8551390562
N        0.1120906420   -0.6786778808    1.1484344021
C        0.1303759846   -3.0689886842    1.8409086242
N        0.2948921627   -2.8563933013    3.0947761454
O        0.3314280940   -4.0704010763    3.8680210666
Cl      -0.2296979891   -3.5873014860   -1.4288733370
H        0.9962510997    1.7625883634    0.3939799735
H       -0.0610681214    1.8341376498   -1.0640656405
H       -0.7916394848    1.8062580756    0.5835640089
H       -0.2335550572   -0.5682768954   -2.1518557210
H        0.0645425492   -4.0804102154    1.4268540030
H       -0.0892910417   -4.7935111266    3.3997591909
16   
Scan Cycle 28/3600 ; Dihedral 6-5-7-15 = -180.00, Dihedral 7-8-9-16 = -15.25 ; Iteration 6 Energy -0.02667555
C        0.0408485305    1.4105593510   -0.0439231710
N        0.0012235172   -0.0444376872   -0.0500509883
C       -0.1314451854   -0.8863651979   -1.1245841024
C       -0.1023730312   -2.0948623390   -0.5353077354
C        0.0452406233   -1.9807351211    0.8572661872
N        0.1079467589   -0.6772585780    1.1491433305
C        0.1177434277   -3.0669157849    1.8444953202
N        0.2728208222   -2.8520855376    3.0992448208
O        0.3076449620   -4.0630113237    3.8778912846
Cl      -0.2347254417   -3.5881623478   -1.4256303930
H        1.0000458394    1.7609828656    0.3946249190
H       -0.0535002001    1.8338333906   -1.0661017120
H       -0.7881890822    1.8091535581    0.5797366873
H       -0.2291687881   -0.5698625949   -2.1518905013
H        0.0501134061   -4.0782324278    1.4308617769
H       -0.0212261586   -4.8106002253    3.3762242768
16   
Scan Cycle 29/3600 ; Dihedral 6-5-7-15 = -180.00, Dihedral 7-8-9-16 = -9.15 ; Iteration 7 Energy -0.02637765
C        0.0451599951    1.4107945499   -0.0453658111
N        0.0016288093   -0.0440945915   -0.0501774441
C       -0.1303668478   -0.8864599920   -1.1244561026
C       -0.1062751403   -2.0943731567   -0.5337468455
C        0.0371542417   -1.9796537739    0.8592180805
N        0.1033155878   -0.6760842755    1.1498864760
C        0.1042261588   -3.0653735296    1.8474090819
N        0.2482468417   -2.8494165378    3.1033562216
O        0.2830152083   -4.0581641218    3.8858216439
Cl      -0.2395439499   -3.5881589492   -1.4231287308
H        1.0040557530    1.7591117165    0.3955041406
H       -0.0452653194    1.8333171231   -1.0682087585
H       -0.7845473420    1.8121888828    0.5756113691
H       -0.2242184976   -0.5706353110   -2.1523368839
H        0.0342106572   -4.0763393490    1.4336284696
H        0.0522038440   -4.8246586842    3.3589850934
16   
Scan Cycle 30/3600 ; Dihedral 6-5-7-15 = -180.00, Dihedral 7-8-9-16 = -3.05 ; Iteration 7 Energy -0.02622491
C        0.0495732533    1.4108450305   -0.0463505661
N        0.0020445183   -0.0439211488   -0.0501311132
C       -0.1290525496   -0.8866388996   -1.1242392138
C       -0.1103274956   -2.0942546436   -0.5327204248
C        0.0286900960   -1.9788341808    0.8606402605
N        0.0982629029   -0.6753054567    1.1506951616
C        0.0898663838   -3.0641605308    1.8496881952
N        0.2230566205   -2.8475866755    3.1067508072
O        0.2579897303   -4.0554576804    3.8907512169
Cl      -0.2445745482   -3.5883014409   -1.4215218407
H        1.0080477714    1.7569269946    0.3971764751
H       -0.0366130360    1.8327856437   -1.0697987713
H       -0.7809461748    1.8149786090    0.5717673851
H       -0.2187311116   -0.5712044860   -2.1526119002
H        0.0176446734   -4.0749376912    1.4359724764
H        0.1280689661   -4.8329334434    3.3459318520
16   
Scan Cycle 31/3600 ; Dihedral 6-5-7-15 = -180.00, Dihedral 7-8-9-16 = 3.05 ; Iteration 4 Energy -0.02622472
C        0.0539221224    1.4105697630   -0.0467345788
N        0.0025233267   -0.0440647686   -0.0500440494
C       -0.1280770449   -0.8864984030   -1.1244413453
C       -0.1142078692   -2.0939118035   -0.5323658296
C        0.0210607405   -1.9787283333    0.8613822873
N        0.0939126877   -0.6753389982    1.1512166841
C        0.0765490004   -3.0639941470    1.8508176291
N        0.1977620674   -2.8466376772    3.1089545369